The equilibrated Bulk phase, LAMMPS data file via write_data, version 7 Aug 2019

7003 atoms
17 atom types
4850 bonds
11 bond types
3202 angles
15 angle types
400 dihedrals
16 dihedral types
100 impropers
4 improper types

0.0000000000000000e+00 3.2543999999999997e+01 xlo xhi
0.0000000000000000e+00 3.2543999999999997e+01 ylo yhi
-1.0000000000000000e+00 65.3 zlo zhi # Based on the turorial selected 1 AA larger than equilibrated bulk size

Masses

1 15.9994
2 12.011
3 1.008
4 12.011
5 12.011
6 1.008
7 12.011
8 1.008
9 12.011
10 1.008
11 15.9994
12 15.9994
13 32.06
14 15.9994 #Oh
15 1.008   #Hh
16 15.9994 #Ow
17 1.008   #Hw

Pair Coeffs # lj/cut/coul/long

1 0.21 2.96
2 0.105 3.75
3 0.015 2.42
4 0.0700001 3.55
5 0.0760001 3.55
6 0.03 2.42
7 0.0760001 3.55
8 0.03 2.42
9 0.0700001 3.55
10 0.03 2.42
11 0.14 2.9
12 0.17 2.96
13 0.25 3.55
14 0.154 3.22
15 0 0
16 0.152 3.15075
17 0 0

Bond Coeffs # harmonic

1 570.001 1.229
2 400 1.49
3 546.001 1.367
4 469.001 1.424
5 340 1.36
6 340 1.09
7 367 1.08
8 367 1.08
9 700 1.44
10 400 1.02
11 399.8 0.9572

Angle Coeffs # harmonic

1 80.0001 120.4
2 35 123
3 35 115
4 85.0001 120
5 67.8705 119.26
6 70.0001 110.6
7 70.0001 107.3
8 35 125.7
9 35 127.5
10 35 132.1
11 35 113.4
12 70.0001 106.5
13 104 119
14 100 112
15 100 104.52

Dihedral Coeffs # harmonic

1 2.875 -1 2
2 2.875 -1 2
3 2.875 -1 2
4 3.625 -1 2
5 2.875 -1 2
6 3.625 -1 2
7 3.625 -1 2
8 3.625 -1 2
9 3.625 -1 2
10 3.625 -1 2
11 3.625 -1 2
12 3.625 -1 2
13 3.625 -1 2
14 3.625 -1 2
15 3.625 -1 2
16 3.625 -1 2

Improper Coeffs # cvff

1 0.262907 -1 2
2 1.09991 -1 2
3 1.09991 -1 2
4 1.09991 -1 2

Atoms # full

3188 902 16 -8.3399999999999996e-01 7.2327851732050670e+00 3.9289626017652894e+00 5.4011586974279195e+00 0 1 0
3190 902 17 4.1699999999999998e-01 6.7228658848578169e+00 4.6159420961771280e+00 5.7893578418381191e+00 0 1 0
6095 1871 16 -8.3399999999999996e-01 6.1039223178481654e+00 4.7362477404326331e+00 9.4432784970875492e+00 0 -1 0
3745 1087 17 4.1699999999999998e-01 4.0389294851721189e+00 2.6596471599006604e+00 1.0972581578226970e+01 0 -2 0
3189 902 17 4.1699999999999998e-01 7.4707204871190642e+00 3.4087381163469943e+00 6.1040268224809529e+00 0 1 0
6097 1871 17 4.1699999999999998e-01 6.5311873847634061e+00 3.9015489428820342e+00 9.8460913074087966e+00 0 -1 0
2622 713 17 4.1699999999999998e-01 2.1151980267977817e+00 6.2355553122071754e+00 1.0855353200669027e+01 0 0 0
919 175 15 5.3000000000000003e-01 6.4279184652182426e+00 4.5183040435958697e+00 3.0634958818119649e+00 0 1 0
1874 464 16 -8.3399999999999996e-01 6.9459354994726210e+00 1.9030540177238220e+00 8.0379151343090047e+00 0 0 0
3944 1154 16 -8.3399999999999996e-01 5.2445083805429826e+00 5.9405885265260769e+00 3.2001629869240196e+00 0 1 0
3743 1087 16 -8.3399999999999996e-01 3.6895846866239177e+00 1.8396127728800797e+00 1.0546028505066932e+01 0 -2 0
918 175 14 -5.8999999999999997e-01 7.2200538336690494e+00 4.0770359555274238e+00 2.5713722423908223e+00 0 1 0
6096 1871 17 4.1699999999999998e-01 5.8461697082549540e+00 4.5506335544858425e+00 8.5614400067741840e+00 0 -1 0
952 183 15 5.3000000000000003e-01 5.7239453541080854e-01 3.4776121242042657e+00 5.1252998785467136e+00 0 0 0
2992 836 17 4.1699999999999998e-01 3.7824846673299879e+00 2.8563266549108448e+00 6.3663922798397063e+00 0 1 0
2990 836 16 -8.3399999999999996e-01 3.4957168342121330e+00 3.3421639744420091e+00 5.5544735797277713e+00 0 1 0
921 175 15 5.3000000000000003e-01 7.4129037880852193e+00 3.1174041699729713e+00 3.0705601581060713e+00 0 1 0
2553 690 17 4.1699999999999998e-01 4.1409275589569337e+00 2.2647230707758790e+00 8.6880973214923394e+00 0 1 0
321 41 12 -8.4350000000000003e-01 3.6968728629093519e+00 7.0863130349447783e+00 5.6521230950108139e+00 0 0 0
5986 1834 17 4.1699999999999998e-01 6.3583400084723127e+00 1.5769040640919323e+00 1.0769335390058876e+01 1 0 0
5985 1834 17 4.1699999999999998e-01 7.7156466599423910e+00 2.1545743266587429e+00 1.0642897610707015e+01 1 0 0
5984 1834 16 -8.3399999999999996e-01 6.8181741650009364e+00 2.4454116818164180e+00 1.0798205991900707e+01 1 0 0
2991 836 17 4.1699999999999998e-01 3.8839764902210057e+00 4.2297261499714978e+00 5.7750192504891222e+00 0 1 0
325 41 12 -8.4350000000000003e-01 5.2572605891238213e+00 5.6933868067203779e+00 6.6118484023712192e+00 0 0 0
322 41 13 1.3740000000000001e+00 4.6332269083596671e+00 6.9875094377771658e+00 6.7228337281131108e+00 0 0 0
4804 1440 17 4.1699999999999998e-01 1.6817026179571968e+00 6.6012370734426851e+00 6.1357001334260097e+00 0 0 0
4802 1440 16 -8.3399999999999996e-01 1.0643827931803813e+00 6.5030423149266516e+00 6.8537299011327812e+00 0 0 0
1875 464 17 4.1699999999999998e-01 7.8582820914760241e+00 1.9616207546719067e+00 8.3145273960733217e+00 0 0 0
5392 1636 17 4.1699999999999998e-01 2.0023998975113648e+00 1.8923069556391863e+00 9.4098464243630442e+00 1 1 0
3946 1154 17 4.1699999999999998e-01 4.7179826003104530e+00 6.0729337931257916e+00 4.0562412721963135e+00 0 1 0
5390 1636 16 -8.3399999999999996e-01 1.1988158671643385e+00 2.0302264001375696e+00 8.8928765808616159e+00 1 1 0
1876 464 17 4.1699999999999998e-01 6.8814282596393284e+00 1.0762767058063709e+00 7.5121767391217666e+00 0 0 0
6973 2163 17 4.1699999999999998e-01 3.7422092335916162e+00 6.0576781284161072e+00 9.3864700050289382e+00 0 0 0
6971 2163 16 -8.3399999999999996e-01 3.6751919325484703e+00 5.4949025863823291e+00 1.0193672595093853e+01 0 0 0
6972 2163 17 4.1699999999999998e-01 4.5543649832793687e+00 5.0651149382651361e+00 1.0212471781304165e+01 0 0 0
324 41 12 -8.4350000000000003e-01 3.9370302551956486e+00 7.2684243117170828e+00 7.9700855362394352e+00 0 0 0
6754 2090 17 4.1699999999999998e-01 5.0459955595908346e+00 9.3212150462702648e-01 3.1176234720017284e+00 2 2 0
3945 1154 17 4.1699999999999998e-01 5.7712009656561838e+00 6.7732860038629621e+00 3.1179120253597903e+00 0 1 0
862 161 14 -5.8999999999999997e-01 8.0320741395690352e+00 6.8831761255489932e+00 5.5673041299494326e+00 0 0 0
2552 690 16 -8.3399999999999996e-01 4.3491423270450644e+00 2.2489311319119092e+00 7.7501400762715056e+00 0 1 0
231 23 12 -8.4350000000000003e-01 1.6033049055753334e+01 5.3089299825580456e+00 3.2978057167573085e+00 -1 0 0
2162 560 16 -8.3399999999999996e-01 1.2514773950173834e+00 7.5474782158541665e+00 3.6074698056822365e+00 0 1 0
4803 1440 17 4.1699999999999998e-01 1.5903797882555162e+00 6.7162186144334299e+00 7.6385118486844599e+00 0 0 0
4670 1396 16 -8.3399999999999996e-01 1.2207791625813472e+01 6.7486946927827773e+00 6.2419044311578533e+00 0 0 0
4614 1377 17 4.1699999999999998e-01 5.5767891947012469e+00 8.0168390316740901e+00 9.1875973353181024e+00 0 0 0
865 161 15 5.3000000000000003e-01 7.1640033490494046e+00 7.2148919700406404e+00 6.0651832348790728e+00 0 0 0
2163 560 17 4.1699999999999998e-01 2.1776479092878973e+00 7.3870061151997781e+00 3.9156960924432207e+00 0 1 0
5880 1799 17 4.1699999999999998e-01 1.0937564293071659e+01 6.5718661679227353e-02 3.8377449659733371e+00 1 0 0
5195 1571 16 -8.3399999999999996e-01 4.5137903690248846e+00 2.8937349338614076e+00 3.1499103245805520e+00 -1 -1 0
2554 690 17 4.1699999999999998e-01 5.3656418999930784e+00 2.2670256457669891e+00 7.7406499950457155e+00 0 1 0
4615 1377 17 4.1699999999999998e-01 6.2276632401384493e+00 6.7076654574391545e+00 9.5003797526424911e+00 0 0 0
2621 713 16 -8.3399999999999996e-01 1.2474641120569092e+00 6.6617301301984861e+00 1.0826038089327323e+01 0 0 0
2056 524 17 4.1699999999999998e-01 1.0571646620937916e+00 4.7108149593151625e+00 6.8398852630384317e+00 0 -1 0
2054 524 16 -8.3399999999999996e-01 9.5199482285369075e-01 3.7237978046750104e+00 6.5194448651022974e+00 0 -1 0
5197 1571 17 4.1699999999999998e-01 4.1751757212688752e+00 3.1630520251922469e+00 4.0514894767919856e+00 -1 -1 0
2452 656 17 4.1699999999999998e-01 7.3086578452215667e+00 8.7377086431847428e-01 2.9793650975157324e+00 0 0 0
2055 524 17 4.1699999999999998e-01 1.2839196547122336e+00 3.2161717827684169e+00 7.2680015396298678e+00 0 -1 0
5196 1571 17 4.1699999999999998e-01 4.1219732181747615e+00 3.4757486896166614e+00 2.4884556291829543e+00 -1 -1 0
769 137 15 5.3000000000000003e-01 1.4264418601342056e+01 1.3841876726118623e+00 7.8756910681140022e+00 0 0 0
2623 713 17 4.1699999999999998e-01 1.2479376187524247e+00 7.3543748192255798e+00 1.0201735244086658e+01 0 0 0
5391 1636 17 4.1699999999999998e-01 7.8431181018128648e-01 2.7187558991829484e+00 9.4864613959468613e+00 1 1 0
2394 637 17 4.1699999999999998e-01 3.5849456862613165e+00 7.1360713058065905e-01 7.3199655408121140e+00 0 1 0
6752 2090 16 -8.3399999999999996e-01 5.4184812325851759e+00 3.1118195759863531e-02 3.1285973434405148e+00 2 2 0
4613 1377 16 -8.3399999999999996e-01 6.3586462111277990e+00 7.6777090254270544e+00 9.6164024019836045e+00 0 0 0
3744 1087 17 4.1699999999999998e-01 3.4270342553443576e+00 1.2601146429383201e+00 1.1321770085018862e+01 0 -2 0
4074 1197 17 4.1699999999999998e-01 3.6627577634189024e+00 6.2166697760412841e+00 1.2078563838959377e+01 0 0 0
1237 254 15 5.3000000000000003e-01 2.4240600900121453e-01 7.2886921464387910e-03 7.5302514941190388e+00 1 0 0
2450 656 16 -8.3399999999999996e-01 7.7428038527176382e+00 1.6718407375996045e+00 3.3916229383646606e+00 0 0 0
4033 1183 17 4.1699999999999998e-01 9.5337993584638490e+00 2.1952976132111751e-02 8.9455771105553321e+00 1 1 0
950 183 14 -5.8999999999999997e-01 2.6719366793776100e-01 3.3314328148804639e+00 4.1103875748012202e+00 0 0 0
1474 330 17 4.1699999999999998e-01 8.0160267214495899e+00 7.8780158047384550e+00 9.4970303115559656e+00 0 0 0
323 41 12 -8.4350000000000003e-01 5.7437970123368878e+00 7.9411019543363555e+00 6.5963783921991173e+00 0 0 0
1630 382 17 4.1699999999999998e-01 1.6026422843733862e+01 7.4830316376319459e+00 6.1074475897473182e+00 0 0 0
2303 607 16 -8.3399999999999996e-01 1.1898908625114943e+01 7.9676099986097020e+00 1.0484884883209890e+01 2 0 0
6196 1904 17 4.1699999999999998e-01 1.1700829185153514e+01 4.5031109857215936e+00 7.1594183022084774e+00 0 0 0
1089 217 15 5.3000000000000003e-01 1.5763560401313610e+01 6.8847115070991123e+00 3.0403658975952226e+00 0 0 0
3425 981 16 -8.3399999999999996e-01 1.2029662138577567e+01 5.7190726263140581e+00 8.5601056204521484e+00 1 0 0
2304 607 17 4.1699999999999998e-01 1.1009720727640675e+01 7.6459399112478206e+00 1.0770511061984472e+01 2 0 0
1086 217 14 -5.8999999999999997e-01 1.5744922470707975e+01 7.9534392942380387e+00 2.9708567609257219e+00 0 0 0
4180 1232 17 4.1699999999999998e-01 8.5731123237694928e-01 4.6172206927911583e+00 1.0882807482202217e+01 0 0 0
4812 1443 17 4.1699999999999998e-01 1.4789743660144833e+01 4.6128440717516739e+00 7.2352038672265921e+00 -1 0 0
1472 330 16 -8.3399999999999996e-01 8.9582594822635837e+00 7.9036854293689816e+00 9.6171068134366280e+00 0 0 0
4671 1396 17 4.1699999999999998e-01 1.3188979883352683e+01 6.5090806574071634e+00 6.3447398461916267e+00 0 0 0
6194 1904 16 -8.3399999999999996e-01 1.1699839516761916e+01 3.7095767821883112e+00 6.5154944529564283e+00 0 0 0
863 161 15 5.3000000000000003e-01 8.6358612798419632e+00 7.7119202945904837e+00 5.2292486499112085e+00 0 0 0
768 137 15 5.3000000000000003e-01 1.3237789606030759e+01 1.9339675617087686e+00 9.1654834399568230e+00 0 0 0
234 23 12 -8.4350000000000003e-01 1.5516890289171947e+01 4.6354883823315021e+00 5.4646386684193313e+00 -1 0 0
474 71 12 -8.4350000000000003e-01 1.0041630766357292e+01 1.7409036264773148e+00 7.9717952342161649e+00 0 0 0
4811 1443 16 -8.3399999999999996e-01 1.4598197723112268e+01 4.3556291539090193e+00 8.1663151025060632e+00 -1 0 0
864 161 15 5.3000000000000003e-01 8.6304954064638810e+00 6.3724750372065788e+00 6.2872430961025882e+00 0 0 0
4234 1250 17 4.1699999999999998e-01 9.2981423732725172e+00 6.6329333551326775e+00 8.3566680006579706e+00 -1 -1 0
4498 1338 17 4.1699999999999998e-01 1.0377810797653057e+01 6.6327362008224464e-02 1.1044007071796713e+01 0 0 0
920 175 15 5.3000000000000003e-01 8.0222529285847362e+00 4.6676714266909380e+00 2.6085153422737588e+00 0 1 0
4813 1443 17 4.1699999999999998e-01 1.4169759044680562e+01 5.1778761301805609e+00 8.5214910608499537e+00 -1 0 0
835 154 15 5.3000000000000003e-01 1.3471371855327739e+01 2.8127058052768508e+00 4.2401992345646429e+00 0 0 0
1628 382 16 -8.3399999999999996e-01 1.5312361996333681e+01 7.1422365995686805e+00 6.6103999185402573e+00 0 0 0
4178 1232 16 -8.3399999999999996e-01 4.6364080141519737e-01 3.7831905782757977e+00 1.0645712062329491e+01 0 0 0
766 137 14 -5.8999999999999997e-01 1.4230060731267507e+01 1.9799768577171688e+00 8.7956175536307288e+00 0 0 0
5881 1799 17 4.1699999999999998e-01 9.9094406992181785e+00 3.7999679835341310e-01 2.7472827234392558e+00 1 0 0
5732 1750 16 -8.3399999999999996e-01 9.1306948874157641e+00 7.0958299079570109e-01 5.4182885043948694e+00 1 -1 0
1629 382 17 4.1699999999999998e-01 1.5309747746732629e+01 6.1980624658198931e+00 6.1901058174414887e+00 0 0 0
475 71 12 -8.4350000000000003e-01 9.5275733465180572e+00 1.7020959988619480e+00 1.0262841564955330e+01 0 0 0
20 2 9 -1.9000000000000000e-02 1.4005566699290799e+01 5.2465776285128403e+00 1.1701788143038755e+01 0 0 0
837 154 15 5.3000000000000003e-01 1.2266785242109151e+01 2.9480045020529611e+00 5.3413727248095784e+00 0 0 0
834 154 14 -5.8999999999999997e-01 1.2564885893976168e+01 2.4095942177923160e+00 4.4895350949422239e+00 0 0 0
235 23 12 -8.4350000000000003e-01 1.3812168516479977e+01 5.0416101232372421e+00 4.0136995745290776e+00 -1 0 0
767 137 15 5.3000000000000003e-01 1.4423461482846854e+01 3.0073198334410538e+00 8.6221741963664957e+00 0 0 0
233 23 12 -8.4350000000000003e-01 1.5267332738656139e+01 3.1451772686686281e+00 3.8352319515290949e+00 -1 0 0
472 71 13 1.3740000000000001e+00 1.0358369237063757e+01 2.2382113488526758e+00 9.2600644395925134e+00 0 0 0
21 2 10 1.4199999999999999e-01 1.4368528617931762e+01 5.7834222893432292e+00 1.0892988420079170e+01 0 0 0
4232 1250 16 -8.3399999999999996e-01 9.3515381060092651e+00 6.0411584295323486e+00 7.6117997595007463e+00 -1 -1 0
1167 237 15 5.3000000000000003e-01 9.8674410183695329e+00 4.4502500309490181e+00 1.2072132780508493e+01 0 0 0
6195 1904 17 4.1699999999999998e-01 1.1121760508387975e+01 3.1215364223731523e+00 7.0516295937270526e+00 0 0 0
4233 1250 17 4.1699999999999998e-01 9.4517098694861499e+00 5.1817717583723324e+00 8.1083875979761473e+00 -1 -1 0
471 71 12 -8.4350000000000003e-01 1.1706940249597823e+01 1.9848504813654049e+00 9.6501800510508637e+00 0 0 0
4672 1396 17 4.1699999999999998e-01 1.1726778324713527e+01 6.3783991567255738e+00 7.0855825043701683e+00 0 0 0
232 23 13 1.3740000000000001e+00 1.5141103529910570e+01 4.5256708992210530e+00 4.0882909310905688e+00 -1 0 0
5359 1625 17 4.1699999999999998e-01 1.1993199369869082e+01 6.0245365959426147e+00 3.2895519766214534e+00 0 1 0
5774 1764 16 -8.3399999999999996e-01 9.6328521245050105e+00 5.8838803544432361e+00 1.1772159629057622e+01 -2 -1 0
5733 1750 17 4.1699999999999998e-01 9.5256409628334477e+00 1.2946679487290138e+00 6.0934846411526253e+00 1 -1 0
1526 348 16 -8.3399999999999996e-01 1.4683074171496427e+01 7.2546972334733386e+00 9.2788481636998643e+00 0 0 0
5776 1764 17 4.1699999999999998e-01 9.1124390973405269e+00 6.3454601778661281e+00 1.1060741155794354e+01 -2 -1 0
560 88 12 -8.4350000000000003e-01 1.4157331484335547e+01 8.6250335194903216e-01 6.2844915369569971e+00 0 0 0
473 71 12 -8.4350000000000003e-01 1.0135149136234938e+01 3.6600581371978405e+00 9.3189018472823619e+00 0 0 0
6671 2063 16 -8.3399999999999996e-01 8.9475171934668225e+00 6.0621385815807862e+00 2.6374406677615907e+00 -2 0 0
5357 1625 16 -8.3399999999999996e-01 1.1358816370738378e+01 6.6829690166752940e+00 3.5347259347045554e+00 0 1 0
2451 656 17 4.1699999999999998e-01 7.9798639625740355e+00 1.3553831060617461e+00 4.3184961623292901e+00 0 0 0
3426 981 17 4.1699999999999998e-01 1.2280903787226638e+01 6.2533663840335993e+00 9.3031093337536550e+00 1 0 0
6672 2063 17 4.1699999999999998e-01 8.5899375244086080e+00 6.8960400337845078e+00 2.2625984289902625e+00 -2 0 0
5358 1625 17 4.1699999999999998e-01 1.1572300853051621e+01 6.7516476655438797e+00 4.5285087089466849e+00 0 1 0
1528 348 17 4.1699999999999998e-01 1.4931315344358906e+01 7.3666294970988693e+00 8.3660323178005722e+00 0 0 0
1169 237 15 5.3000000000000003e-01 9.9467097352097600e+00 2.7622413346064985e+00 1.1673022635781855e+01 0 0 0
6673 2063 17 4.1699999999999998e-01 9.8008727340720156e+00 6.2819787597909409e+00 2.8566643119293547e+00 -2 0 0
22 2 11 -1.9000000000000000e-01 1.4526849556943768e+01 4.0016021763471565e+00 1.1794623268750451e+01 0 0 0
836 154 15 5.3000000000000003e-01 1.2745763878258449e+01 1.3944571371117089e+00 4.8051527635858760e+00 0 0 0
3427 981 17 4.1699999999999998e-01 1.1304003777715481e+01 5.1283353800620715e+00 8.9551066111519404e+00 1 0 0
550 86 12 -8.4350000000000003e-01 5.9896211431355262e+00 4.4228722197704089e+00 1.8927968959602172e+01 0 0 0
797 144 15 5.3000000000000003e-01 3.5934159669164702e+00 6.2895836064616750e+00 1.9458603471673023e+01 0 -1 0
547 86 13 1.3740000000000001e+00 4.5970178701552502e+00 4.1129220445185100e+00 1.8993267754718410e+01 0 0 0
549 86 12 -8.4350000000000003e-01 4.3698525390372778e+00 2.7389306000200961e+00 1.9131032130980095e+01 0 0 0
3835 1117 17 4.1699999999999998e-01 1.6149925945055276e+01 3.5816577668010159e+00 1.5102599200602645e+01 -1 0 0
1062 211 14 -5.8999999999999997e-01 4.2016198430878759e+00 4.1692237513022610e+00 2.5202955346492605e+01 0 0 0
1064 211 15 5.3000000000000003e-01 3.8212302243627043e+00 3.8613882636468739e+00 2.4331285281905675e+01 0 0 0
546 86 12 -8.4350000000000003e-01 4.0417851042059194e+00 4.6302553501320061e+00 1.7776790674953485e+01 0 0 0
548 86 12 -8.4350000000000003e-01 4.0569646385052360e+00 4.7036238960863139e+00 2.0179577346388282e+01 0 0 0
4208 1242 16 -8.3399999999999996e-01 3.3730500019245375e+00 3.3480720665957970e+00 2.2631953531691519e+01 0 -1 0
4209 1242 17 4.1699999999999998e-01 2.8264881088133613e+00 2.5838664606330135e+00 2.2537039534849477e+01 0 -1 0
1912 476 17 4.1699999999999998e-01 5.7789041109959483e+00 1.6600078619725787e+00 1.9541273019520155e+01 1 0 0
3914 1144 16 -8.3399999999999996e-01 7.2121062308630153e+00 6.0688910185829661e+00 2.1096301502307899e+01 0 0 0
4210 1242 17 4.1699999999999998e-01 3.8445195941869330e+00 3.5001866919996223e+00 2.1712858897790682e+01 0 -1 0
1910 476 16 -8.3399999999999996e-01 6.6057122397948689e+00 1.0841508087775313e+00 1.9701354572169631e+01 1 0 0
4378 1298 17 4.1699999999999998e-01 1.2566325007067134e+01 7.4232513660294757e+00 1.6100665074958737e+01 0 0 0
1063 211 15 5.3000000000000003e-01 5.1895663060151325e+00 4.5007228388755554e+00 2.5044144258800983e+01 0 0 0
2023 513 17 4.1699999999999998e-01 6.5813485158124081e+00 1.4301892557990714e+00 2.3887899312740835e+01 -1 1 0
1168 237 15 5.3000000000000003e-01 9.0803536516997454e+00 3.3869720676005874e+00 1.3142151274791539e+01 0 0 0
3325 947 17 4.1699999999999998e-01 1.9727002602914874e+00 6.6707853214113193e+00 1.5571451586592794e+01 1 0 0
3323 947 16 -8.3399999999999996e-01 2.4160695943250214e+00 7.3029287378938985e+00 1.4946983712680364e+01 1 0 0
1753 423 17 4.1699999999999998e-01 4.6021328312179071e+00 1.0294937387171799e+00 2.4148586919731066e+01 0 0 0
2306 608 16 -8.3399999999999996e-01 1.8926307780062354e-01 3.2730672153075964e+00 2.1842683585741103e+01 0 1 0
2298 605 17 4.1699999999999998e-01 4.4275985326790552e+00 1.8840716444690671e+00 1.7332107808720639e+01 0 1 0
2288 602 16 -8.3399999999999996e-01 5.9716944769443792e-01 4.3771766208403609e+00 2.4552740960178134e+01 1 1 0
3964 1160 17 4.1699999999999998e-01 1.2889514497258379e+01 8.0609115379829017e+00 2.3109912107062314e+01 -1 1 0
3277 931 17 4.1699999999999998e-01 3.4455608070605397e+00 4.2675019783858641e+00 1.6095613029912535e+01 -1 2 0
3915 1144 17 4.1699999999999998e-01 6.6374653641260446e+00 5.7608270000617603e+00 2.0349162821795741e+01 0 0 0
2021 513 16 -8.3399999999999996e-01 5.9179145413062013e+00 1.4333555815298482e+00 2.3210712355856774e+01 -1 1 0
1132 228 15 5.3000000000000003e-01 6.2023375956083349e-01 2.5968054132567491e+00 1.6691461969603399e+01 0 0 0
5342 1620 16 -8.3399999999999996e-01 1.3851544918598921e+00 3.3028181760824560e+00 1.9417087364471382e+01 0 0 0
3916 1144 17 4.1699999999999998e-01 6.5658676014531379e+00 6.3599431416067391e+00 2.1768967445298902e+01 0 0 0
5718 1745 17 4.1699999999999998e-01 1.2681459004854061e+01 8.0342452388917440e+00 2.0854656642928781e+01 0 1 0
1131 228 15 5.3000000000000003e-01 7.3492734664777337e-01 3.5400371285263819e+00 1.8107715339422313e+01 0 0 0
3275 931 16 -8.3399999999999996e-01 3.5752783579203289e+00 3.8883034692934921e+00 1.5188937022714196e+01 -1 2 0
5343 1620 17 4.1699999999999998e-01 1.0193295920713683e+00 3.2752325429120952e+00 2.0331853471473469e+01 0 0 0
5344 1620 17 4.1699999999999998e-01 2.3315237596835612e+00 3.2861925182965073e+00 1.9528353645519740e+01 0 0 0
2290 602 17 4.1699999999999998e-01 6.9321964720721918e-01 3.5197736110952347e+00 2.5024716749641296e+01 1 1 0
1130 228 14 -5.8999999999999997e-01 3.0434823197175842e-01 3.4443289110633413e+00 1.7149749650767969e+01 0 0 0
2297 605 16 -8.3399999999999996e-01 4.4481708393023487e+00 1.4051239719509314e+00 1.6450865235409314e+01 0 1 0
2628 715 17 4.1699999999999998e-01 6.0207328599712477e+00 5.0594892483679565e+00 1.6612831098873063e+01 -1 1 0
2728 748 17 4.1699999999999998e-01 1.4233778879883636e+00 5.6369200618780757e-01 1.6858387966864473e+01 0 1 0
3380 966 16 -8.3399999999999996e-01 6.4824790594910313e+00 1.1740202680403113e+00 1.4769355882214615e+01 0 0 0
3276 931 17 4.1699999999999998e-01 4.0093841026634003e+00 3.0421480163267538e+00 1.5352479758522616e+01 -1 2 0
2726 748 16 -8.3399999999999996e-01 1.3175074539987501e+00 1.3448985568347136e+00 1.6297887813332181e+01 0 1 0
3382 966 17 4.1699999999999998e-01 5.7595486459548564e+00 1.3197360171605053e+00 1.5447530864998685e+01 0 0 0
2289 602 17 4.1699999999999998e-01 1.3197345318207410e+00 4.9165802360453323e+00 2.4933501163612821e+01 1 1 0
1897 471 17 4.1699999999999998e-01 4.7098199221177586e+00 3.8893233381419519e+00 1.3433680216601497e+01 0 1 0
4449 1322 17 4.1699999999999998e-01 7.3058627713513946e+00 3.9062471781208532e+00 1.4619790389726203e+01 0 -1 0
2627 715 16 -8.3399999999999996e-01 6.6830474262834443e+00 5.2599236242165119e+00 1.5902135179481201e+01 -1 1 0
2727 748 17 4.1699999999999998e-01 1.9028384363303759e+00 1.0642471093411259e+00 1.5513918474611488e+01 0 1 0
2629 715 17 4.1699999999999998e-01 7.4462843124937521e+00 5.6354649785124398e+00 1.6338895020069572e+01 -1 1 0
3628 1048 17 4.1699999999999998e-01 2.6284301159230559e+00 4.4839768434784144e+00 1.3827853413010404e+01 1 1 0
4448 1322 16 -8.3399999999999996e-01 7.8238666484865975e+00 3.3655454961068343e+00 1.3952237961289507e+01 0 -1 0
4450 1322 17 4.1699999999999998e-01 7.4603681514806048e+00 2.4222771050668368e+00 1.4072337927830347e+01 0 -1 0
3044 854 16 -8.3399999999999996e-01 6.6244997731003750e+00 4.5779504104746289e+00 2.5036856934794841e+01 0 -1 0
2022 513 17 4.1699999999999998e-01 6.3276397032813589e+00 1.9738914208143910e+00 2.2574973769186677e+01 -1 1 0
794 144 14 -5.8999999999999997e-01 3.3496094342934772e+00 7.2632078540107239e+00 1.9200376449859441e+01 0 -1 0
2299 605 17 4.1699999999999998e-01 4.3622687075868098e+00 4.6183126740292779e-01 1.6618340047185249e+01 0 1 0
923 176 15 5.3000000000000003e-01 6.8360040678139509e+00 4.7631483879557034e-02 1.8656315698342961e+01 1 0 0
1911 476 17 4.1699999999999998e-01 7.1895535768300478e+00 1.6291036783444388e+00 2.0305707147378403e+01 1 0 0
3381 966 17 4.1699999999999998e-01 6.3393329527547913e+00 3.1560665165945134e-01 1.4471425661903700e+01 0 0 0
5339 1619 16 -8.3399999999999996e-01 7.2603454633961233e+00 3.1304677127214853e+00 2.1578002048620494e+01 0 0 0
4401 1306 17 4.1699999999999998e-01 2.6489358888862986e+00 5.3529516677588918e-01 2.3247209872890831e+01 1 1 0
5340 1619 17 4.1699999999999998e-01 7.1551585140057821e+00 3.7736095667669622e+00 2.0933932640320499e+01 0 0 0
3626 1048 16 -8.3399999999999996e-01 2.1151486354757374e+00 4.6697308963235065e+00 1.3007559576886747e+01 1 1 0
1339 285 17 4.1699999999999998e-01 4.0192937399492923e+00 7.1763551185186021e+00 2.2965440337776339e+01 0 1 0
4525 1347 17 4.1699999999999998e-01 5.7445051590086651e+00 6.4755180473803922e+00 1.3165081404797046e+01 2 0 0
2251 589 17 4.1699999999999998e-01 6.1198872153717794e+00 7.7124672483294612e+00 2.4188422039996549e+01 0 1 0
1751 423 16 -8.3399999999999996e-01 3.8026147177500595e+00 8.0145481265473961e-01 2.4676194298918826e+01 0 0 0
2307 608 17 4.1699999999999998e-01 3.2688734890799875e-01 3.8371581656426459e+00 2.2668262650980051e+01 0 1 0
1337 285 16 -8.3399999999999996e-01 4.8661266656551394e+00 7.5042528263326984e+00 2.2707679822567087e+01 0 1 0
4891 1469 17 4.1699999999999998e-01 1.7764654770115744e+00 6.8086961444997414e+00 2.4056855410018144e+01 0 0 0
4889 1469 16 -8.3399999999999996e-01 2.3951261935509836e+00 6.3269568435239130e+00 2.4765222563678325e+01 0 0 0
3463 993 17 4.1699999999999998e-01 1.7815134126292620e-01 3.6240093127602973e+00 1.4011134283076146e+01 2 2 0
5459 1659 16 -8.3399999999999996e-01 4.6546249944148395e+00 7.9060602685110464e+00 1.6781028988001587e+01 0 0 0
3871 1129 17 4.1699999999999998e-01 4.0554490062043529e+00 6.6007859526432111e-01 2.0822889245132348e+01 1 0 0
5460 1659 17 4.1699999999999998e-01 5.3024229972130090e+00 7.2186099994220143e+00 1.6766385296822691e+01 0 0 0
19 2 8 1.2600000000000000e-01 1.2226699047724209e+01 6.2001811749918474e+00 1.2675583051913998e+01 0 0 0
4351 1289 17 4.1699999999999998e-01 2.0317296302186230e+00 1.4136437139223026e-01 1.2863297586506913e+01 -1 -2 0
4400 1306 16 -8.3399999999999996e-01 2.1602706588487086e+00 6.0595133053857630e-01 2.2400475333446980e+01 1 1 0
1976 498 16 -8.3399999999999996e-01 8.7957382943857922e+00 7.9847136227211708e+00 1.8779677821984702e+01 0 -1 0
6901 2139 17 4.1699999999999998e-01 8.7152731762702851e-01 5.3233964594254812e-01 1.9650783800838287e+01 1 1 0
3324 947 17 4.1699999999999998e-01 1.7493223256755732e+00 8.0395754659778209e+00 1.4796487633436818e+01 1 0 0
5461 1659 17 4.1699999999999998e-01 3.9507616398758150e+00 7.5349070128820159e+00 1.6223816442589232e+01 0 0 0
3046 854 17 4.1699999999999998e-01 6.9492256318327010e+00 5.4802026301431468e+00 2.5103460147871839e+01 0 -1 0
3045 854 17 4.1699999999999998e-01 7.3794520960721588e+00 4.1083760563032747e+00 2.4712867914575725e+01 0 -1 0
13 2 2 4.6999999999999997e-01 1.4129660093569726e+01 1.9787947615882908e+00 1.3154801401997934e+01 0 0 0
14 2 3 1.2200000000000000e-01 1.3413894537760267e+01 1.5107204745515694e+00 1.3910301755588351e+01 0 0 0
6839 2119 16 -8.3399999999999996e-01 2.1973241642074498e-01 6.8650875281412880e+00 1.6854357626168603e+01 0 0 0
4073 1197 16 -8.3399999999999996e-01 4.0898928055144328e+00 6.7850647281655574e+00 1.2742041357492573e+01 0 0 0
6609 2042 17 4.1699999999999998e-01 8.7639740200321530e+00 7.2055416132911452e+00 1.7196225440704961e+01 0 0 0
2359 625 17 4.1699999999999998e-01 7.3864101731469081e+00 3.1522932554703083e+00 1.8189785476027577e+01 0 -1 0
4075 1197 17 4.1699999999999998e-01 3.3525366841495732e+00 6.9722554497882632e+00 1.3315080985854157e+01 0 0 0
4523 1347 16 -8.3399999999999996e-01 6.6664417445562849e+00 6.4479488637779028e+00 1.3335218481597055e+01 2 0 0
4524 1347 17 4.1699999999999998e-01 6.7272038742335765e+00 6.0453048219249190e+00 1.4162176732539740e+01 2 0 0
3833 1117 16 -8.3399999999999996e-01 1.5497958163229999e+01 3.5975446397627291e+00 1.5865679689533733e+01 -1 0 0
16 2 5 -1.5400000000000000e-01 1.3002754389470667e+01 4.2111882536956031e+00 1.3387911650962119e+01 0 0 0
6445 1987 17 4.1699999999999998e-01 9.5663896502169035e+00 7.6618508999711876e+00 1.4650877662228931e+01 0 0 0
3962 1160 16 -8.3399999999999996e-01 1.3335451599333348e+01 7.4263242639495317e+00 2.2446699053037236e+01 -1 1 0
6130 1882 17 4.1699999999999998e-01 1.4349742793296416e+01 7.3161798685046113e+00 1.4053394959467234e+01 -1 0 0
4149 1222 17 4.1699999999999998e-01 1.4222395658958302e+01 4.1183089169009035e+00 1.9182157404288077e+01 -1 0 0
2358 625 17 4.1699999999999998e-01 8.9046016289231460e+00 2.9689094918915910e+00 1.8392906881314698e+01 0 -1 0
247 26 13 1.3740000000000001e+00 1.0104907935136955e+01 4.4159819672112359e+00 2.4235543762273579e+01 0 0 0
5764 1760 17 4.1699999999999998e-01 1.1166350148789931e+01 4.4039498388430536e+00 1.6759382510391202e+01 1 1 0
4377 1298 17 4.1699999999999998e-01 1.1760291349167581e+01 7.1685228421742169e+00 1.4766331225522270e+01 0 0 0
1743 420 17 4.1699999999999998e-01 3.4111562234298010e-01 1.3316210123241154e+00 1.3050885121552133e+01 -1 2 0
765 136 15 5.3000000000000003e-01 9.7676768626449242e+00 7.3182155487964842e+00 2.1969722762920611e+01 0 0 0
3875 1131 16 -8.3399999999999996e-01 1.1452193996442118e+01 9.9338960999378900e-01 1.5295239708784754e+01 0 0 0
6128 1882 16 -8.3399999999999996e-01 1.5313731741230665e+01 7.3883283553732797e+00 1.4308025943067721e+01 -1 0 0
6551 2023 16 -8.3399999999999996e-01 1.5887188197520727e+01 7.2328888530469060e-01 1.5923974098902674e+01 1 1 0
6520 2012 17 4.1699999999999998e-01 1.5679281204362294e+01 5.2333886117069683e+00 2.3547397430514167e+01 1 1 0
4402 1306 17 4.1699999999999998e-01 1.4055451796154741e+00 1.1267563100700073e-01 2.2597993909061692e+01 1 1 0
2335 617 17 4.1699999999999998e-01 1.3649286667662786e+01 1.3671203712799934e-01 1.8550909569423233e+01 -1 3 0
15 2 4 -1.9000000000000000e-02 1.3909251376572534e+01 3.3732271182334728e+00 1.2833797044559473e+01 0 0 0
2373 630 17 4.1699999999999998e-01 1.2864923188741919e+01 5.9912228665431115e+00 1.8482949196321119e+01 0 1 0
1659 392 17 4.1699999999999998e-01 1.0110528849683297e+01 7.4677090302649329e+00 2.3818467255118044e+01 1 -1 0