OPLS-AA LAMMPS data file for Furfural

      11 atoms
      11 bonds
      16 angles
      20 dihedrals
       5 impropers
 
      11 atom types
      8 bond types
      12 angle types
      16 dihedral types
      4 improper types
 
   1    5 xlo xhi
  -4    1 ylo yhi
  -4 1 zlo zhi

Masses

             1       15.9994
             2        12.011
             3         1.008
             4        12.011
             5        12.011
             6         1.008
             7        12.011
             8         1.008
             9        12.011
            10         1.008
            11       15.9994

Pair Coeffs

             1   0.210000232          2.96
             2   0.105000116          3.75
             3   0.015000017          2.42
             4   0.070000077          3.55
             5   0.076000084          3.55
             6   0.030000033          2.42
             7   0.076000084          3.55
             8   0.030000033          2.42
             9   0.070000077          3.55
            10   0.030000033          2.42
            11   0.140000155           2.9

Bond Coeffs

             1   570.0006293       1.22900
             2   400.0004416       1.49000
             3   546.0006028       1.36700
             4   469.0005178       1.42400
             5   340.0003754       1.36000
             6   340.0003754       1.09000
             7   367.0004052       1.08000
             8   367.0004052       1.08000

Angle Coeffs

             1   80.00008832       120.400
             2   35.00003864       123.000
             3   35.00003864       115.000
             4   85.00009384       120.000
             5   67.87053382       119.260
             6   70.00007728       110.600
             7   70.00007728       107.300
             8   35.00003864       125.700
             9   35.00003864       127.500
            10   35.00003864       132.100
            11   35.00003864       113.400
            12   70.00007728       106.500

Dihedral Coeffs

             1   2.875003174            -1             2
             2   2.875003174            -1             2
             3   2.875003174            -1             2
             4   3.625004002            -1             2
             5   2.875003174            -1             2
             6   3.625004002            -1             2
             7   3.625004002            -1             2
             8   3.625004002            -1             2
             9   3.625004002            -1             2
            10   3.625004002            -1             2
            11   3.625004002            -1             2
            12   3.625004002            -1             2
            13   3.625004002            -1             2
            14   3.625004002            -1             2
            15   3.625004002            -1             2
            16   3.625004002            -1             2

Improper Coeffs

             1     0.2629066            -1             2
             2   1.099905612            -1             2
             3   1.099905612            -1             2
             4   1.099905612            -1             2

Atoms

1    1  1  -0.4500   1.430    -0.560     0.820
2    1  2   0.4700   2.230    -0.100     0.000
3    1  3   0.1220   2.440     0.980     0.010
4    1  4  -0.0190   2.940    -0.840    -1.000
5    1  5  -0.1540   3.850    -0.440    -1.970
6    1  6   0.1260   4.200     0.570    -2.140
7    1  7  -0.1540   4.230    -1.610    -2.680
8    1  8   0.1260   4.920    -1.680    -3.500
9    1  9  -0.0190   3.530    -2.650    -2.110
10   1  10  0.1420   3.480    -3.710    -2.290
11   1  11 -0.1900   2.750    -2.200    -1.090

Bonds 

1	1	1	2
2	2	2	4
3	3	4	5
4	4	5	7
5	3	7	9
6	5	9	11
7	5	4	11
8	6	2	3
9	7	5	6
10	7	7	8
11	8	9	10

Angles 

1	1	1	2	4
2	2	1	2	3
3	3	3	2	4
4	4	2	4	5
5	5	2	4	11
6	6	11	4	5
7	7	4	5	7
8	8	4	5	6
9	9	6	5	7
10	7	5	7	9
11	9	5	7	8
12	8	8	7	9
13	6	7	9	11
14	10	7	9	10
15	11	10	9	11
16	12	9	11	4

Dihedrals

1 1	1	2	4	5
2 2	3	2	4	5
3 3	1	2	4	11
4 4	2	4	11	9
5 5	3	2	4	11
6 6	2	4	5	7
7 7	11	4	5	7
8 8	5	4	11	9
9 9	6	5	4	11
10 10	2	4	5	6
11 11	4	5	7	9
12 12	6	5	7	9
13 13	8	7	5	6
14 12	4	5	7	8
15 7	5	7	9	11
16 9	8	7	9	11
17 14	10	9	7	8
18 15	5	7	9	10
19 8	7	9	11	4
20 16	10	9	11	4

Impropers

1 1	2	1	4	3
2 2	4	2	5	11
3 3	5	4	7	6
4 3	7	5	9	8
5 4	9	7	11	10

