LAMMPS TIP3P water model

 3 atoms
 2 bonds
 1 angles
 0 dihedrals
 0 impropers
 2 atom types
 1 bond types
 1 angle types
 0 dihedral types
 0 improper types
 10.0 30.0  xlo xhi
 10.0 30.0  ylo yhi
 10.0 30.0  zlo zhi

 Masses

1 15.9994 # ow
2 1.008 # hw

 Pair Coeffs

1 0.152000 3.150752 # ow
2 0.000000 0.000000 # hw

 Bond Coeffs

1 399.8     0.9572 # ow-hw

 Angle Coeffs

1 100.00 104.52 # hw-ow-hw


 Atoms

1 1 1 -0.834 28.5400 29.3500 11.6500
2 1 2 0.417 29.0000 29.3900 12.4900
3 1 2 0.417 27.6600 29.0400 11.8700

 Bonds  
   
1 1 1 2
2 1 1 3

 Angles   

1 1 2 1 3

