LAMMPS data file for Sulfate with OPLSAA parameters

 5 atoms
 4 bonds
 6 angles
 2 atom types
 1 bond types
 1 angle types

 -5.0 5.0  xlo xhi
 -5.0 5.0  ylo yhi
 -5.0 5.0  zlo zhi

Masses

1 15.9994
2 32.06

Pair Coeffs # lj/cut/coul/long

1	0.17	3.55
2	0.25	2.96

Bond Coeffs # harmonic

1	700	1.44

Angle Coeffs # harmonic

1	104	119

 Atoms

1	1	1	-0.8435	-0.11852	0.96521	-1.35069
2	1	2	1.3740	-0.00756	0.54144	0.01687
3	1	1	-0.8435	0.9707	1.14068	0.88059
4	1	1	-0.8435	-1.43394	0.66869	0.70316
5	1	1	-0.8435	0.19116	-1.03385	0.04375

 Bonds  
   
1	1	2	1
2	1	2	3
3	1	2	4
4	1	2	5

 Angles   

1	1	1	2	3
2	1	1	2	4
3	1	1	2	5
4	1	3	2	4
5	1	3	2	5
6	1	4	2	5
